file 1843771 1766062284                                         
version 3
run General-0-20251218-13:50:17-32048
attr configname General
attr datetime 20251218-13:50:17
attr datetimef 20251218-135017
attr experiment General
attr inifile omnetpp.ini
attr iterationvars ""
attr iterationvarsd ""
attr iterationvarsf ""
attr measurement ""
attr network tszdk_praktika2
attr processid 32048
attr repetition 0
attr replication #0
attr resultdir results
attr runnumber 0
attr seedset 0
config image-path ../../../../../../../../Documents/00PAULA/EHU/omnet/omnetpp-6.3.0/samples/inet4.5/images
config network tszdk_praktika2
config sim-time-limit 60s
config *.*.ipv4.arp.typename Arp
config *.server1_16.numApps 1
config *.server1_16.app[0].typename TcpServerApp
config *.server1_16.app[0].localPort 80
config *.auzoa_1lan1host1.numApps 1
config *.auzoa_1lan1host1.app[0].typename TcpBasicClientApp
config *.auzoa_1lan1host1.app[0].connectAddress "\"server1_16\""
config *.auzoa_1lan1host1.app[0].connectPort 80
config *.auzoa_1lan1host1.app[0].tOpen 1s
config *.auzoa_1lan1host1.app[0].sendBytes 10000B
config *.auzoa_1lan1host1.app[0].tClose 10s
config *.auzoa_1lan1host1.ipv4.address "\"10.1.1.1\""
config *.auzoa_1lan1host1.ipv4.netmask "\"255.255.255.0\""
config *.auzoa_1lan1host1.ipv4.gateway "\"10.1.16.1\""
config *.server1_16.ipv4.address "\"10.16.1.1\""
config *.server1_16.ipv4.netmask "\"255.255.255.0\""
config *.server1_16.ipv4.gateway "\"10.1.16.1\""
config *.auzoa_16router.ipv4.address "\"10.1.16.1\""

vector 0 tszdk_praktika2.auzoa_1lan1host1.ethernet encapPk:vector(packetBytes) ETV
attr interpolationmode none
attr recordingmode vector(packetBytes)
attr source encapPk
attr title "packets encapsulated, packetBytes"
vector 1 tszdk_praktika2.auzoa_1lan1host1.ethernet decapPk:vector(packetBytes) ETV
attr interpolationmode none
attr recordingmode vector(packetBytes)
attr source decapPk
attr title "packets decapsulated, packetBytes"
vector 2 tszdk_praktika2.auzoa_1lan1host1.ethernet pauseSent:vector ETV
attr recordingmode vector
attr title "pause sent"
vector 3 tszdk_praktika2.auzoa_1lan1host1.lo[0].lo rcvdPkFromHl:vector(packetBytes) ETV
attr interpolationmode none
attr recordingmode vector(packetBytes)
attr source packetReceivedFromUpper
attr title "packets received from higher layer, packetBytes"
vector 4 tszdk_praktika2.auzoa_1lan1host1.lo[0].lo passedUpPk:vector(packetBytes) ETV
attr interpolationmode none
attr recordingmode vector(packetBytes)
attr source packetSentToUpper
attr title "packets passed to higher layer, packetBytes"
vector 5 tszdk_praktika2.auzoa_1lan1host1.lo[0] packetDropInterfaceDown:vector(packetBytes) ETV
attr interpolationmode none
attr recordingmode vector(packetBytes)
attr source packetDropReasonIsInterfaceDown(packetDropped)
attr title "packet drops: interface down, packetBytes"
vector 6 tszdk_praktika2.auzoa_1lan1host1.lo[0] packetDropNoCarrier:vector(packetBytes) ETV
attr interpolationmode none
attr recordingmode vector(packetBytes)
attr source packetDropReasonIsNoCarrier(packetDropped)
attr title "packet drops: no carrier, packetBytes"
vector 7 tszdk_praktika2.auzoa_1lan1host1.eth[0].queue queueLength:vector ETV
attr autoWarmupFilter false
attr interpolationmode sample-hold
attr recordingmode vector
attr source "warmup(atomic(constant0(packetPushEnded) + count(packetPushStarted) - count(packetPulled) - count(packetRemoved) - count(packetDropped)))"
attr title "queue length"
attr unit pk
vector 8 tszdk_praktika2.auzoa_1lan1host1.eth[0].queue queueBitLength:vector ETV
attr autoWarmupFilter false
attr interpolationmode sample-hold
attr recordingmode vector
attr source "warmup(atomic(constant0(packetPushEnded) + sum(packetLength(packetPushStarted)) - sum(packetLength(packetPulled)) - sum(packetLength(packetRemoved)) - sum(packetLength(packetDropped))))"
attr title "queue bit length"
attr unit b
vector 9 tszdk_praktika2.auzoa_1lan1host1.eth[0].queue queueingTime:vector ETV
attr interpolationmode none
attr recordingmode vector
attr source queueingTime(packetPulled)
attr title "queueing times"
attr unit s
vector 10 tszdk_praktika2.auzoa_1lan1host1.eth[0].queue incomingPacketLengths:vector ETV
attr interpolationmode none
attr recordingmode vector
attr source packetLength(packetPushStarted)
attr title "incoming packet lengths"
attr unit b
vector 11 tszdk_praktika2.auzoa_1lan1host1.eth[0].queue incomingDataRate:vector ETV
attr interpolationmode linear
attr recordingmode vector
attr source throughput(packetPushStarted)
attr title "incoming datarate"
attr unit bps
vector 12 tszdk_praktika2.auzoa_1lan1host1.eth[0].queue outgoingPacketLengths:vector ETV
attr interpolationmode none
attr recordingmode vector
attr source packetLength(packetPulled)
attr title "outgoing packet lengths"
attr unit b
vector 13 tszdk_praktika2.auzoa_1lan1host1.eth[0].queue outgoingDataRate:vector ETV
attr interpolationmode linear
attr recordingmode vector
attr source throughput(packetPulled)
attr title "outgoing datarate"
attr unit bps
vector 14 tszdk_praktika2.auzoa_1lan1host1.eth[0].queue droppedPacketLengthsQueueOverflow:vector ETV
attr interpolationmode none
attr recordingmode vector
attr source packetLength(packetDropReasonIsQueueOverflow(packetDropped))
attr title "dropped packet lengths: queue overflow"
attr unit b
vector 15 tszdk_praktika2.auzoa_1lan1host1.eth[0].queue flowQueueingTime:vector ETV
attr interpolationmode none
attr recordingmode vector
attr source queueingTime(demuxFlow(packetPulled))
attr title "flow queueing times"
attr unit s
vector 16 tszdk_praktika2.auzoa_1lan1host1.eth[0].queue flowIncomingDataRate:vector ETV
attr interpolationmode linear
attr recordingmode vector
attr source throughput(flowPacketLength(demuxFlow(packetPushStarted)))
attr title "flow specific incoming data rate"
attr unit bps
vector 17 tszdk_praktika2.auzoa_1lan1host1.eth[0].queue flowOutgoingDataRate:vector ETV
attr interpolationmode linear
attr recordingmode vector
attr source throughput(flowPacketLength(demuxFlow(packetPulled)))
attr title "flow specific outgoing data rate"
attr unit bps
vector 18 tszdk_praktika2.auzoa_1lan1host1.eth[0].mac txPk:vector(packetBytes) ETV
attr interpolationmode none
attr recordingmode vector(packetBytes)
attr source packetSentToLower
attr title "packets transmitted, packetBytes"
vector 19 tszdk_praktika2.auzoa_1lan1host1.eth[0].mac rxPkOk:vector(packetBytes) ETV
attr interpolationmode none
attr recordingmode vector(packetBytes)
attr source rxPkOk
attr title "packets received OK, packetBytes"
vector 20 tszdk_praktika2.auzoa_1lan1host1.eth[0].mac passedUpPk:vector(packetBytes) ETV
attr interpolationmode none
attr recordingmode vector(packetBytes)
attr source packetSentToUpper
attr title "packets passed to higher layer, packetBytes"
vector 21 tszdk_praktika2.auzoa_1lan1host1.eth[0].mac txPausePkUnits:vector ETV
attr interpolationmode none
attr recordingmode vector
attr title "pause units sent"
vector 22 tszdk_praktika2.auzoa_1lan1host1.eth[0].mac rxPausePkUnits:vector ETV
attr interpolationmode none
attr recordingmode vector
attr title "pause units received"
vector 23 tszdk_praktika2.auzoa_1lan1host1.eth[0].mac packetReceivedFromUpper:vector(packetBytes) ETV
attr interpolationmode none
attr recordingmode vector(packetBytes)
attr source packetReceivedFromUpper
attr title "packet bytes from higher layer, packetBytes"
vector 24 tszdk_praktika2.auzoa_1lan1host1.eth[0].mac packetDropIncorrectlyReceived:vector(packetBytes) ETV
attr interpolationmode none
attr recordingmode vector(packetBytes)
attr source packetDropReasonIsIncorrectlyReceived(packetDropped)
attr title "packet drop: incorrectly received, packetBytes"
vector 25 tszdk_praktika2.auzoa_1lan1host1.eth[0].mac packetDropInterfaceDown:vector(packetBytes) ETV
attr interpolationmode none
attr recordingmode vector(packetBytes)
attr source packetDropReasonIsInterfaceDown(packetDropped)
attr title "packet drop: interface down, packetBytes"
vector 26 tszdk_praktika2.auzoa_1lan1host1.eth[0].mac packetDropNotAddressedToUs:vector(packetBytes) ETV
attr interpolationmode none
attr recordingmode vector(packetBytes)
attr source packetDropReasonIsNotAddressedToUs(packetDropped)
attr title "packet drop: not addressed to us, packetBytes"
vector 27 tszdk_praktika2.auzoa_1lan1host1.eth[0] packetDropInterfaceDown:vector(packetBytes) ETV
attr interpolationmode none
attr recordingmode vector(packetBytes)
attr source packetDropReasonIsInterfaceDown(packetDropped)
attr title "packet drops: interface down, packetBytes"
vector 28 tszdk_praktika2.auzoa_1lan1host1.eth[0] packetDropNoCarrier:vector(packetBytes) ETV
attr interpolationmode none
attr recordingmode vector(packetBytes)
attr source packetDropReasonIsNoCarrier(packetDropped)
attr title "packet drops: no carrier, packetBytes"
vector 29 tszdk_praktika2.auzoa_1lan1host1.ipv4.ip packetDropAddressResolutionFailed:vector(packetBytes) ETV
attr interpolationmode none
attr recordingmode vector(packetBytes)
attr source packetDropReasonIsAddressResolutionFailed(packetDropped)
attr title "packet drop: address resolution failed, packetBytes"
vector 30 tszdk_praktika2.auzoa_1lan1host1.ipv4.ip packetDropHopLimitReached:vector(packetBytes) ETV
attr interpolationmode none
attr recordingmode vector(packetBytes)
attr source packetDropReasonIsHopLimitReached(packetDropped)
attr title "packet drop: hop limit reached, packetBytes"
vector 31 tszdk_praktika2.auzoa_1lan1host1.ipv4.ip packetDropForwardingDisabled:vector(packetBytes) ETV
attr interpolationmode none
attr recordingmode vector(packetBytes)
attr source packetDropReasonIsForwardingDisabled(packetDropped)
attr title "packet drop: forwarding disabled, packetBytes"
vector 32 tszdk_praktika2.auzoa_1lan1host1.ipv4.ip packetDropNoInterfaceFound:vector(packetBytes) ETV
attr interpolationmode none
attr recordingmode vector(packetBytes)
attr source packetDropReasonIsNoInterfaceFound(packetDropped)
attr title "packet drop: no interface found, packetBytes"
vector 33 tszdk_praktika2.auzoa_1lan1host1.ipv4.ip packetDropNoRouteFound:vector(packetBytes) ETV
attr interpolationmode none
attr recordingmode vector(packetBytes)
attr source packetDropReasonIsNoRouteFound(packetDropped)
attr title "packet drop: no route found, packetBytes"
vector 34 tszdk_praktika2.auzoa_1lan1host1.ipv4.ip packetDropUndefined:vector(packetBytes) ETV
attr interpolationmode none
attr recordingmode vector(packetBytes)
attr source packetDropReasonIsUndefined(packetDropped)
attr title "packet drop: undefined, packetBytes"
vector 35 tszdk_praktika2.auzoa_1lan1host1.ipv4.arp arpRequestSent:vector(packetBytes) ETV
attr recordingmode vector(packetBytes)
attr source arpRequestSent
attr title "ARP request sent, packetBytes"
vector 36 tszdk_praktika2.auzoa_1lan1host1.ipv4.arp arpReplySent:vector(packetBytes) ETV
attr recordingmode vector(packetBytes)
attr source arpReplySent
attr title "ARP replies sent, packetBytes"
vector 37 tszdk_praktika2.auzoa_1lan1host1.udp packetSent:vector(packetBytes) ETV
attr interpolationmode none
attr recordingmode vector(packetBytes)
attr source packetSent
attr title "packets sent, packetBytes"
vector 38 tszdk_praktika2.auzoa_1lan1host1.udp packetReceived:vector(packetBytes) ETV
attr interpolationmode none
attr recordingmode vector(packetBytes)
attr source packetReceived
attr title "packets received, packetBytes"
vector 39 tszdk_praktika2.auzoa_1lan1host1.udp passedUpPk:vector(count) ETV
attr interpolationmode none
attr recordingmode vector(count)
attr source packetSentToUpper
attr title "packets passed up, count"
vector 40 tszdk_praktika2.auzoa_1lan1host1.udp droppedPkWrongPort:vector(count) ETV
attr interpolationmode none
attr recordingmode vector(count)
attr source packetDropReasonIsNoPortFound(packetDropped)
attr title "packets dropped (wrong port), count"
vector 41 tszdk_praktika2.auzoa_1lan1host1.udp droppedPkBadChecksum:vector(count) ETV
attr interpolationmode none
attr recordingmode vector(count)
attr source packetDropReasonIsIncorrectlyReceived(packetDropped)
attr title "packets dropped (checksum error), count"
vector 42 tszdk_praktika2.auzoa_1lan1host1.app[0] packetReceived:vector(packetBytes) ETV
attr interpolationmode none
attr recordingmode vector(packetBytes)
attr source packetReceived
attr title "packets received, packetBytes"
vector 43 tszdk_praktika2.auzoa_1lan1host1.app[0] packetSent:vector(packetBytes) ETV
attr interpolationmode none
attr recordingmode vector(packetBytes)
attr source packetSent
attr title "packets sent, packetBytes"
vector 44 tszdk_praktika2.auzoa_1lan1host1.app[0] endToEndDelay:vector ETV
attr interpolationmode none
attr recordingmode vector
attr source dataAge(packetReceived)
attr title "end-to-end delay"
attr unit s
vector 45 tszdk_praktika2.auzoa_1lan1host1.app[0] numActiveSessions:vector ETV
attr autoWarmupFilter false
attr interpolationmode sample-hold
attr recordingmode vector
attr source warmup(sum(connect))
attr title "number of active sessions"
vector 46 tszdk_praktika2.auzoa_1lan1host2.ethernet encapPk:vector(packetBytes) ETV
attr interpolationmode none
attr recordingmode vector(packetBytes)
attr source encapPk
attr title "packets encapsulated, packetBytes"
vector 47 tszdk_praktika2.auzoa_1lan1host2.ethernet decapPk:vector(packetBytes) ETV
attr interpolationmode none
attr recordingmode vector(packetBytes)
attr source decapPk
attr title "packets decapsulated, packetBytes"
vector 48 tszdk_praktika2.auzoa_1lan1host2.ethernet pauseSent:vector ETV
attr recordingmode vector
attr title "pause sent"
vector 49 tszdk_praktika2.auzoa_1lan1host2.lo[0].lo rcvdPkFromHl:vector(packetBytes) ETV
attr interpolationmode none
attr recordingmode vector(packetBytes)
attr source packetReceivedFromUpper
attr title "packets received from higher layer, packetBytes"
vector 50 tszdk_praktika2.auzoa_1lan1host2.lo[0].lo passedUpPk:vector(packetBytes) ETV
attr interpolationmode none
attr recordingmode vector(packetBytes)
attr source packetSentToUpper
attr title "packets passed to higher layer, packetBytes"
vector 51 tszdk_praktika2.auzoa_1lan1host2.lo[0] packetDropInterfaceDown:vector(packetBytes) ETV
attr interpolationmode none
attr recordingmode vector(packetBytes)
attr source packetDropReasonIsInterfaceDown(packetDropped)
attr title "packet drops: interface down, packetBytes"
vector 52 tszdk_praktika2.auzoa_1lan1host2.lo[0] packetDropNoCarrier:vector(packetBytes) ETV
attr interpolationmode none
attr recordingmode vector(packetBytes)
attr source packetDropReasonIsNoCarrier(packetDropped)
attr title "packet drops: no carrier, packetBytes"
vector 53 tszdk_praktika2.auzoa_1lan1host2.eth[0].queue queueLength:vector ETV
attr autoWarmupFilter false
attr interpolationmode sample-hold
attr recordingmode vector
attr source "warmup(atomic(constant0(packetPushEnded) + count(packetPushStarted) - count(packetPulled) - count(packetRemoved) - count(packetDropped)))"
attr title "queue length"
attr unit pk
vector 54 tszdk_praktika2.auzoa_1lan1host2.eth[0].queue queueBitLength:vector ETV
attr autoWarmupFilter false
attr interpolationmode sample-hold
attr recordingmode vector
attr source "warmup(atomic(constant0(packetPushEnded) + sum(packetLength(packetPushStarted)) - sum(packetLength(packetPulled)) - sum(packetLength(packetRemoved)) - sum(packetLength(packetDropped))))"
attr title "queue bit length"
attr unit b
vector 55 tszdk_praktika2.auzoa_1lan1host2.eth[0].queue queueingTime:vector ETV
attr interpolationmode none
attr recordingmode vector
attr source queueingTime(packetPulled)
attr title "queueing times"
attr unit s
vector 56 tszdk_praktika2.auzoa_1lan1host2.eth[0].queue incomingPacketLengths:vector ETV
attr interpolationmode none
attr recordingmode vector
attr source packetLength(packetPushStarted)
attr title "incoming packet lengths"
attr unit b
vector 57 tszdk_praktika2.auzoa_1lan1host2.eth[0].queue incomingDataRate:vector ETV
attr interpolationmode linear
attr recordingmode vector
attr source throughput(packetPushStarted)
attr title "incoming datarate"
attr unit bps
vector 58 tszdk_praktika2.auzoa_1lan1host2.eth[0].queue outgoingPacketLengths:vector ETV
attr interpolationmode none
attr recordingmode vector
attr source packetLength(packetPulled)
attr title "outgoing packet lengths"
attr unit b
vector 59 tszdk_praktika2.auzoa_1lan1host2.eth[0].queue outgoingDataRate:vector ETV
attr interpolationmode linear
attr recordingmode vector
attr source throughput(packetPulled)
attr title "outgoing datarate"
attr unit bps
vector 60 tszdk_praktika2.auzoa_1lan1host2.eth[0].queue droppedPacketLengthsQueueOverflow:vector ETV
attr interpolationmode none
attr recordingmode vector
attr source packetLength(packetDropReasonIsQueueOverflow(packetDropped))
attr title "dropped packet lengths: queue overflow"
attr unit b
vector 61 tszdk_praktika2.auzoa_1lan1host2.eth[0].queue flowQueueingTime:vector ETV
attr interpolationmode none
attr recordingmode vector
attr source queueingTime(demuxFlow(packetPulled))
attr title "flow queueing times"
attr unit s
vector 62 tszdk_praktika2.auzoa_1lan1host2.eth[0].queue flowIncomingDataRate:vector ETV
attr interpolationmode linear
attr recordingmode vector
attr source throughput(flowPacketLength(demuxFlow(packetPushStarted)))
attr title "flow specific incoming data rate"
attr unit bps
vector 63 tszdk_praktika2.auzoa_1lan1host2.eth[0].queue flowOutgoingDataRate:vector ETV
attr interpolationmode linear
attr recordingmode vector
attr source throughput(flowPacketLength(demuxFlow(packetPulled)))
attr title "flow specific outgoing data rate"
attr unit bps
vector 64 tszdk_praktika2.auzoa_1lan1host2.eth[0].mac txPk:vector(packetBytes) ETV
attr interpolationmode none
attr recordingmode vector(packetBytes)
attr source packetSentToLower
attr title "packets transmitted, packetBytes"
vector 65 tszdk_praktika2.auzoa_1lan1host2.eth[0].mac rxPkOk:vector(packetBytes) ETV
attr interpolationmode none
attr recordingmode vector(packetBytes)
attr source rxPkOk
attr title "packets received OK, packetBytes"
vector 66 tszdk_praktika2.auzoa_1lan1host2.eth[0].mac passedUpPk:vector(packetBytes) ETV
attr interpolationmode none
attr recordingmode vector(packetBytes)
attr source packetSentToUpper
attr title "packets passed to higher layer, packetBytes"
vector 67 tszdk_praktika2.auzoa_1lan1host2.eth[0].mac txPausePkUnits:vector ETV
attr interpolationmode none
attr recordingmode vector
attr title "pause units sent"
vector 68 tszdk_praktika2.auzoa_1lan1host2.eth[0].mac rxPausePkUnits:vector ETV
attr interpolationmode none
attr recordingmode vector
attr title "pause units received"
vector 69 tszdk_praktika2.auzoa_1lan1host2.eth[0].mac packetReceivedFromUpper:vector(packetBytes) ETV
attr interpolationmode none
attr recordingmode vector(packetBytes)
attr source packetReceivedFromUpper
attr title "packet bytes from higher layer, packetBytes"
vector 70 tszdk_praktika2.auzoa_1lan1host2.eth[0].mac packetDropIncorrectlyReceived:vector(packetBytes) ETV
attr interpolationmode none
attr recordingmode vector(packetBytes)
attr source packetDropReasonIsIncorrectlyReceived(packetDropped)
attr title "packet drop: incorrectly received, packetBytes"
vector 71 tszdk_praktika2.auzoa_1lan1host2.eth[0].mac packetDropInterfaceDown:vector(packetBytes) ETV
attr interpolationmode none
attr recordingmode vector(packetBytes)
attr source packetDropReasonIsInterfaceDown(packetDropped)
attr title "packet drop: interface down, packetBytes"
vector 72 tszdk_praktika2.auzoa_1lan1host2.eth[0].mac packetDropNotAddressedToUs:vector(packetBytes) ETV
attr interpolationmode none
attr recordingmode vector(packetBytes)
attr source packetDropReasonIsNotAddressedToUs(packetDropped)
attr title "packet drop: not addressed to us, packetBytes"
vector 73 tszdk_praktika2.auzoa_1lan1host2.eth[0] packetDropInterfaceDown:vector(packetBytes) ETV
attr interpolationmode none
attr recordingmode vector(packetBytes)
attr source packetDropReasonIsInterfaceDown(packetDropped)
attr title "packet drops: interface down, packetBytes"
vector 74 tszdk_praktika2.auzoa_1lan1host2.eth[0] packetDropNoCarrier:vector(packetBytes) ETV
attr interpolationmode none
attr recordingmode vector(packetBytes)
attr source packetDropReasonIsNoCarrier(packetDropped)
attr title "packet drops: no carrier, packetBytes"
vector 75 tszdk_praktika2.auzoa_1lan1host2.ipv4.ip packetDropAddressResolutionFailed:vector(packetBytes) ETV
attr interpolationmode none
attr recordingmode vector(packetBytes)
attr source packetDropReasonIsAddressResolutionFailed(packetDropped)
attr title "packet drop: address resolution failed, packetBytes"
vector 76 tszdk_praktika2.auzoa_1lan1host2.ipv4.ip packetDropHopLimitReached:vector(packetBytes) ETV
attr interpolationmode none
attr recordingmode vector(packetBytes)
attr source packetDropReasonIsHopLimitReached(packetDropped)
attr title "packet drop: hop limit reached, packetBytes"
vector 77 tszdk_praktika2.auzoa_1lan1host2.ipv4.ip packetDropForwardingDisabled:vector(packetBytes) ETV
attr interpolationmode none
attr recordingmode vector(packetBytes)
attr source packetDropReasonIsForwardingDisabled(packetDropped)
attr title "packet drop: forwarding disabled, packetBytes"
vector 78 tszdk_praktika2.auzoa_1lan1host2.ipv4.ip packetDropNoInterfaceFound:vector(packetBytes) ETV
attr interpolationmode none
attr recordingmode vector(packetBytes)
attr source packetDropReasonIsNoInterfaceFound(packetDropped)
attr title "packet drop: no interface found, packetBytes"
vector 79 tszdk_praktika2.auzoa_1lan1host2.ipv4.ip packetDropNoRouteFound:vector(packetBytes) ETV
attr interpolationmode none
attr recordingmode vector(packetBytes)
attr source packetDropReasonIsNoRouteFound(packetDropped)
attr title "packet drop: no route found, packetBytes"
vector 80 tszdk_praktika2.auzoa_1lan1host2.ipv4.ip packetDropUndefined:vector(packetBytes) ETV
attr interpolationmode none
attr recordingmode vector(packetBytes)
attr source packetDropReasonIsUndefined(packetDropped)
attr title "packet drop: undefined, packetBytes"
vector 81 tszdk_praktika2.auzoa_1lan1host2.ipv4.arp arpRequestSent:vector(packetBytes) ETV
attr recordingmode vector(packetBytes)
attr source arpRequestSent
attr title "ARP request sent, packetBytes"
vector 82 tszdk_praktika2.auzoa_1lan1host2.ipv4.arp arpReplySent:vector(packetBytes) ETV
attr recordingmode vector(packetBytes)
attr source arpReplySent
attr title "ARP replies sent, packetBytes"
vector 83 tszdk_praktika2.auzoa_1lan1host2.udp packetSent:vector(packetBytes) ETV
attr interpolationmode none
attr recordingmode vector(packetBytes)
attr source packetSent
attr title "packets sent, packetBytes"
vector 84 tszdk_praktika2.auzoa_1lan1host2.udp packetReceived:vector(packetBytes) ETV
attr interpolationmode none
attr recordingmode vector(packetBytes)
attr source packetReceived
attr title "packets received, packetBytes"
vector 85 tszdk_praktika2.auzoa_1lan1host2.udp passedUpPk:vector(count) ETV
attr interpolationmode none
attr recordingmode vector(count)
attr source packetSentToUpper
attr title "packets passed up, count"
vector 86 tszdk_praktika2.auzoa_1lan1host2.udp droppedPkWrongPort:vector(count) ETV
attr interpolationmode none
attr recordingmode vector(count)
attr source packetDropReasonIsNoPortFound(packetDropped)
attr title "packets dropped (wrong port), count"
vector 87 tszdk_praktika2.auzoa_1lan1host2.udp droppedPkBadChecksum:vector(count) ETV
attr interpolationmode none
attr recordingmode vector(count)
attr source packetDropReasonIsIncorrectlyReceived(packetDropped)
attr title "packets dropped (checksum error), count"
vector 88 tszdk_praktika2.auzoa_1lan1host3.ethernet encapPk:vector(packetBytes) ETV
attr interpolationmode none
attr recordingmode vector(packetBytes)
attr source encapPk
attr title "packets encapsulated, packetBytes"
vector 89 tszdk_praktika2.auzoa_1lan1host3.ethernet decapPk:vector(packetBytes) ETV
attr interpolationmode none
attr recordingmode vector(packetBytes)
attr source decapPk
attr title "packets decapsulated, packetBytes"
vector 90 tszdk_praktika2.auzoa_1lan1host3.ethernet pauseSent:vector ETV
attr recordingmode vector
attr title "pause sent"
vector 91 tszdk_praktika2.auzoa_1lan1host3.lo[0].lo rcvdPkFromHl:vector(packetBytes) ETV
attr interpolationmode none
attr recordingmode vector(packetBytes)
attr source packetReceivedFromUpper
attr title "packets received from higher layer, packetBytes"
vector 92 tszdk_praktika2.auzoa_1lan1host3.lo[0].lo passedUpPk:vector(packetBytes) ETV
attr interpolationmode none
attr recordingmode vector(packetBytes)
attr source packetSentToUpper
attr title "packets passed to higher layer, packetBytes"
vector 93 tszdk_praktika2.auzoa_1lan1host3.lo[0] packetDropInterfaceDown:vector(packetBytes) ETV
attr interpolationmode none
attr recordingmode vector(packetBytes)
attr source packetDropReasonIsInterfaceDown(packetDropped)
attr title "packet drops: interface down, packetBytes"
vector 94 tszdk_praktika2.auzoa_1lan1host3.lo[0] packetDropNoCarrier:vector(packetBytes) ETV
attr interpolationmode none
attr recordingmode vector(packetBytes)
attr source packetDropReasonIsNoCarrier(packetDropped)
attr title "packet drops: no carrier, packetBytes"
vector 95 tszdk_praktika2.auzoa_1lan1host3.eth[0].queue queueLength:vector ETV
attr autoWarmupFilter false
attr interpolationmode sample-hold
attr recordingmode vector
attr source "warmup(atomic(constant0(packetPushEnded) + count(packetPushStarted) - count(packetPulled) - count(packetRemoved) - count(packetDropped)))"
attr title "queue length"
attr unit pk
vector 96 tszdk_praktika2.auzoa_1lan1host3.eth[0].queue queueBitLength:vector ETV
attr autoWarmupFilter false
attr interpolationmode sample-hold
attr recordingmode vector
attr source "warmup(atomic(constant0(packetPushEnded) + sum(packetLength(packetPushStarted)) - sum(packetLength(packetPulled)) - sum(packetLength(packetRemoved)) - sum(packetLength(packetDropped))))"
attr title "queue bit length"
attr unit b
vector 97 tszdk_praktika2.auzoa_1lan1host3.eth[0].queue queueingTime:vector ETV
attr interpolationmode none
attr recordingmode vector
attr source queueingTime(packetPulled)
attr title "queueing times"
attr unit s
vector 98 tszdk_praktika2.auzoa_1lan1host3.eth[0].queue incomingPacketLengths:vector ETV
attr interpolationmode none
attr recordingmode vector
attr source packetLength(packetPushStarted)
attr title "incoming packet lengths"
attr unit b
vector 99 tszdk_praktika2.auzoa_1lan1host3.eth[0].queue incomingDataRate:vector ETV
attr interpolationmode linear
attr recordingmode vector
attr source throughput(packetPushStarted)
attr title "incoming datarate"
attr unit bps
vector 100 tszdk_praktika2.auzoa_1lan1host3.eth[0].queue outgoingPacketLengths:vector ETV
attr interpolationmode none
attr recordingmode vector
attr source packetLength(packetPulled)
attr title "outgoing packet lengths"
attr unit b
vector 101 tszdk_praktika2.auzoa_1lan1host3.eth[0].queue outgoingDataRate:vector ETV
attr interpolationmode linear
attr recordingmode vector
attr source throughput(packetPulled)
attr title "outgoing datarate"
attr unit bps
vector 102 tszdk_praktika2.auzoa_1lan1host3.eth[0].queue droppedPacketLengthsQueueOverflow:vector ETV
attr interpolationmode none
attr recordingmode vector
attr source packetLength(packetDropReasonIsQueueOverflow(packetDropped))
attr title "dropped packet lengths: queue overflow"
attr unit b
vector 103 tszdk_praktika2.auzoa_1lan1host3.eth[0].queue flowQueueingTime:vector ETV
attr interpolationmode none
attr recordingmode vector
attr source queueingTime(demuxFlow(packetPulled))
attr title "flow queueing times"
attr unit s
vector 104 tszdk_praktika2.auzoa_1lan1host3.eth[0].queue flowIncomingDataRate:vector ETV
attr interpolationmode linear
attr recordingmode vector
attr source throughput(flowPacketLength(demuxFlow(packetPushStarted)))
attr title "flow specific incoming data rate"
attr unit bps
vector 105 tszdk_praktika2.auzoa_1lan1host3.eth[0].queue flowOutgoingDataRate:vector ETV
attr interpolationmode linear
attr recordingmode vector
attr source throughput(flowPacketLength(demuxFlow(packetPulled)))
attr title "flow specific outgoing data rate"
attr unit bps
vector 106 tszdk_praktika2.auzoa_1lan1host3.eth[0].mac txPk:vector(packetBytes) ETV
attr interpolationmode none
attr recordingmode vector(packetBytes)
attr source packetSentToLower
attr title "packets transmitted, packetBytes"
vector 107 tszdk_praktika2.auzoa_1lan1host3.eth[0].mac rxPkOk:vector(packetBytes) ETV
attr interpolationmode none
attr recordingmode vector(packetBytes)
attr source rxPkOk
attr title "packets received OK, packetBytes"
vector 108 tszdk_praktika2.auzoa_1lan1host3.eth[0].mac passedUpPk:vector(packetBytes) ETV
attr interpolationmode none
attr recordingmode vector(packetBytes)
attr source packetSentToUpper
attr title "packets passed to higher layer, packetBytes"
vector 109 tszdk_praktika2.auzoa_1lan1host3.eth[0].mac txPausePkUnits:vector ETV
attr interpolationmode none
attr recordingmode vector
attr title "pause units sent"
vector 110 tszdk_praktika2.auzoa_1lan1host3.eth[0].mac rxPausePkUnits:vector ETV
attr interpolationmode none
attr recordingmode vector
attr title "pause units received"
vector 111 tszdk_praktika2.auzoa_1lan1host3.eth[0].mac packetReceivedFromUpper:vector(packetBytes) ETV
attr interpolationmode none
attr recordingmode vector(packetBytes)
attr source packetReceivedFromUpper
attr title "packet bytes from higher layer, packetBytes"
vector 112 tszdk_praktika2.auzoa_1lan1host3.eth[0].mac packetDropIncorrectlyReceived:vector(packetBytes) ETV
attr interpolationmode none
attr recordingmode vector(packetBytes)
attr source packetDropReasonIsIncorrectlyReceived(packetDropped)
attr title "packet drop: incorrectly received, packetBytes"
vector 113 tszdk_praktika2.auzoa_1lan1host3.eth[0].mac packetDropInterfaceDown:vector(packetBytes) ETV
attr interpolationmode none
attr recordingmode vector(packetBytes)
attr source packetDropReasonIsInterfaceDown(packetDropped)
attr title "packet drop: interface down, packetBytes"